
#(C) 2016 by FIZ Karlsruhe - Leibniz Institute for Information Infrastructure.  All rights reserved.
data_100610-ICSD
_database_code_ICSD 100610
_audit_creation_date 1980-01-01
_audit_update_record 2015-02-01
_chemical_name_systematic 'Tin(IV) sulfide'
_chemical_formula_structural 'Sn S2'
_chemical_formula_sum 'S2 Sn1'
_chemical_name_structure_type CdI2
_chemical_name_mineral 'Berndtite 2T'
_exptl_crystal_density_diffrn 4.5
_publ_section_title

;
The crystal structures and compressibilities of layer minerals at high
pressure. I. Sn S2, berndtite
;
loop_
_citation_id
_citation_journal_full
_citation_year
_citation_journal_volume
_citation_page_first
_citation_page_last
_citation_journal_id_ASTM
primary 'American Mineralogist' 1978 63 289 292 AMMIAY
loop_
_publ_author_name
'Hazen, R.M.'
'Finger, L.W.'
_cell_length_a 3.638(3)
_cell_length_b 3.638(3)
_cell_length_c 5.88(1)
_cell_angle_alpha 90.
_cell_angle_beta 90.
_cell_angle_gamma 120.
_cell_volume 67.4
_cell_formula_units_Z 1
_symmetry_space_group_name_H-M 'P -3 m 1'
_symmetry_Int_Tables_number 164
_refine_ls_R_factor_all 0.063
loop_
_symmetry_equiv_pos_site_id
_symmetry_equiv_pos_as_xyz
1 'x-y, -y, -z'
2 '-x, -x+y, -z'
3 'y, x, -z'
4 'x-y, x, -z'
5 'y, -x+y, -z'
6 '-x, -y, -z'
7 '-x+y, y, z'
8 'x, x-y, z'
9 '-y, -x, z'
10 '-x+y, -x, z'
11 '-y, x-y, z'
12 'x, y, z'
loop_
_atom_type_symbol
_atom_type_oxidation_number
Sn4+ 4
S2- -2
loop_
_atom_site_label
_atom_site_type_symbol
_atom_site_symmetry_multiplicity
_atom_site_Wyckoff_symbol
_atom_site_fract_x
_atom_site_fract_y
_atom_site_fract_z
_atom_site_B_iso_or_equiv
_atom_site_occupancy
_atom_site_attached_hydrogens
Sn1 Sn4+ 1 a 0 0 0 1.4 1. 0
S1 S2- 2 d 0.6667 0.3333 -.25(1) 1.8 1. 0
#End of TTdata_100610-ICSD