
#(C) 2017 by FIZ Karlsruhe - Leibniz Institute for Information Infrastructure.  All rights reserved.
data_171461-ICSD
_database_code_ICSD 171461
_audit_creation_date 2006-10-01
_audit_update_record 2013-02-01
_chemical_name_systematic 'Silicon carbide'
_chemical_formula_structural 'Si C'
_chemical_formula_sum 'C1 Si1'
_chemical_name_structure_type SiC(hR22)
_chemical_name_mineral 'Moissanite 33R'
_exptl_crystal_density_diffrn 3.23
_publ_section_title 'The crystal structure of natural 33R moissanite from Tibet'
loop_
_citation_id
_citation_journal_full
_citation_year
_citation_journal_volume
_citation_page_first
_citation_page_last
_citation_journal_id_ASTM
primary 'Zeitschrift fuer Kristallographie (1979-2010)' 2006 221 213 217 ZEKRDZ
loop_
_publ_author_name
'Lee, J.-S.'
'Yu, S.-C.'
'Tung, S.-F.'
'Bai Wen-Ji'
'Yang, J.-S.'
'Fang, Q.-S.'
'Zhang, Z.'
_cell_length_a 3.076(1)
_cell_length_b 3.076(1)
_cell_length_c 83.12(2)
_cell_angle_alpha 90.
_cell_angle_beta 90.
_cell_angle_gamma 120.
_cell_volume 681.1
_cell_formula_units_Z 33
_symmetry_space_group_name_H-M 'R 3 m H'
_symmetry_Int_Tables_number 160
_refine_ls_R_factor_all 0.048
loop_
_symmetry_equiv_pos_site_id
_symmetry_equiv_pos_as_xyz
1 '-x+y, y, z'
2 'x, x-y, z'
3 '-y, -x, z'
4 '-x+y, -x, z'
5 '-y, x-y, z'
6 'x, y, z'
7 '-x+y+2/3, y+1/3, z+1/3'
8 'x+2/3, x-y+1/3, z+1/3'
9 '-y+2/3, -x+1/3, z+1/3'
10 '-x+y+2/3, -x+1/3, z+1/3'
11 '-y+2/3, x-y+1/3, z+1/3'
12 'x+2/3, y+1/3, z+1/3'
13 '-x+y+1/3, y+2/3, z+2/3'
14 'x+1/3, x-y+2/3, z+2/3'
15 '-y+1/3, -x+2/3, z+2/3'
16 '-x+y+1/3, -x+2/3, z+2/3'
17 '-y+1/3, x-y+2/3, z+2/3'
18 'x+1/3, y+2/3, z+2/3'
loop_
_atom_type_symbol
_atom_type_oxidation_number
Si4+ 4
C4- -4
loop_
_atom_site_label
_atom_site_type_symbol
_atom_site_symmetry_multiplicity
_atom_site_Wyckoff_symbol
_atom_site_fract_x
_atom_site_fract_y
_atom_site_fract_z
_atom_site_B_iso_or_equiv
_atom_site_occupancy
_atom_site_attached_hydrogens
Si1 Si4+ 3 a 0 0 -0.0006(1) 0.0032(3) 1. 0
Si2 Si4+ 3 a 0.6667 0.3333 0.0297(1) 0.0047(3) 1. 0
Si3 Si4+ 3 a 0.3333 0.6667 0.0600(1) 0.0037(3) 1. 0
Si4 Si4+ 3 a 0 0 0.0904(1) 0.0013(1) 1. 0
Si5 Si4+ 3 a 0.3333 0.6667 0.1207(1) 0.0025(3) 1. 0
Si6 Si4+ 3 a 0.6667 0.3333 0.1510(1) 0.0019(3) 1. 0
Si7 Si4+ 3 a 0 0 0.1812(1) 0.0047(3) 1. 0
Si8 Si4+ 3 a 0.6667 0.3333 0.2116(1) 0.0030(3) 1. 0
Si9 Si4+ 3 a 0.3333 0.6667 0.2418(1) 0.0020(3) 1. 0
Si10 Si4+ 3 a 0 0 0.2721(1) 0.0016(3) 1. 0
Si11 Si4+ 3 a 0.3333 0.6667 0.3025(1) 0.0023(2) 1. 0
C1 C4- 3 a 0 0 0.0223(1) 0.0048(6) 1. 0
C2 C4- 3 a 0.6667 0.3333 0.0524(1) 0.0074(7) 1. 0
C3 C4- 3 a 0.3333 0.6667 0.0826(1) 0.0066(6) 1. 0
C4 C4- 3 a 0 0 0.1131(1) 0.0025(5) 1. 0
C5 C4- 3 a 0.3333 0.6667 0.1434(1) 0.0035(5) 1. 0
C6 C4- 3 a 0.6667 0.3333 0.1737(1) 0.0039(5) 1. 0
C7 C4- 3 a 0 0 0.2042(1) 0.0029(5) 1. 0
C8 C4- 3 a 0.6667 0.3333 0.2344(1) 0.0013(5) 1. 0
C9 C4- 3 a 0.3333 0.6667 0.2646(1) 0.0025(6) 1. 0
C10 C4- 3 a 0 0 0.2950(1) 0.0024(5) 1. 0
C11 C4- 3 a 0.3333 0.6667 0.3253(1) 0.0037(5) 1. 0
loop_
_atom_site_aniso_label
_atom_site_aniso_type_symbol
_atom_site_aniso_U_11
_atom_site_aniso_U_22
_atom_site_aniso_U_33
_atom_site_aniso_U_12
_atom_site_aniso_U_13
_atom_site_aniso_U_23
Si1 Si4+ 0.0025(4) 0.0025(4) 0.0025(6) 0.0012(2) 0 0
Si2 Si4+ 0.0030(4) 0.0030(4) 0.0033(7) 0.0015(2) 0 0
Si3 Si4+ 0.0026(4) 0.0026(4) 0.0062(6) 0.0013(2) 0 0
Si4 Si4+ 0.0010(3) 0.0010(3) 0.0030(9) 0.0004(1) 0 0
Si5 Si4+ 0.0025(3) 0.0025(3) 0.0056(6) 0.0013(2) 0 0
Si6 Si4+ 0.0018(3) 0.0018(3) 0.0053(5) 0.0009(2) 0 0
Si7 Si4+ 0.0023(3) 0.0023(3) 0.0053(8) 0.0012(2) 0 0
Si8 Si4+ 0.0010(3) 0.0010(3) 0.0053(7) 0.0005(2) 0 0
Si9 Si4+ 0.0010(3) 0.0010(3) 0.0053(7) 0.0005(2) 0 0
Si10 Si4+ 0.0017(2) 0.0017(2) 0.0053(6) 0.0009(2) 0 0
Si11 Si4+ 0.0023(2) 0.0023(2) 0.0053(3) 0.0012(1) 0 0
C1 C4- 0.0030(8) 0.0030(8) 0.0065(14) 0.0015(4) 0 0
C2 C4- 0.0030(8) 0.0030(8) 0.0060(18) 0.0015(4) 0 0
C3 C4- 0.0023(8) 0.0023(8) 0.0064(18) 0.0012(4) 0 0
C4 C4- 0.0015(7) 0.0015(7) .0010(14) 0.0008(3) 0 0
C5 C4- 0.0029(7) 0.0029(7) 0.0012(12) 0.0015(4) 0 0
C6 C4- 0.0016(7) 0.0016(7) .0010(15) 0.0008(3) 0 0
C7 C4- 0.0039(7) 0.0039(7) 0.0064(11) 0.0020(4) 0 0
C8 C4- 0.0019(7) 0.0019(7) 0.0051(10) 0.0009(3) 0 0
C9 C4- 0.0013(7) 0.0013(7) 0.0068(15) 0.0006(3) 0 0
C10 C4- 0.0029(7) 0.0029(7) 0.0150(11) 0.0014(4) 0 0
C11 C4- 0.0034(7) 0.0034(7) 0.0103(13) 0.0017(4) 0 0
#End of TTdata_171461-ICSD