
#(C) 2017 by FIZ Karlsruhe - Leibniz Institute for Information Infrastructure, and the U.S. Secretary of
#Commerce on behalf of the United States.  All rights reserved.
data_621706-ICSD
_database_code_ICSD 621706
_audit_creation_date 2008-08-01
_audit_update_record 2013-02-01
_chemical_name_systematic 'Cerium sesquioxide'
_chemical_formula_structural 'Ce2 O3'
_chemical_formula_sum 'Ce2 O3'
_chemical_name_structure_type La2O3
_exptl_crystal_density_diffrn 6.86
_publ_section_title 'The crystal structure of A - Ce2 03'
_publ_section_comment 'Cell and Type only determined'
loop_
_citation_id
_citation_journal_full
_citation_year
_citation_journal_volume
_citation_page_first
_citation_page_last
_citation_journal_id_ASTM
primary 'Journal of the Less-Common Metals' 1985 110 385 390 JCOMAH
loop_
_publ_author_name
'Baernighausen, H.'
'Schiller, G.'
_cell_length_a 3.891(1)
_cell_length_b 3.891(1)
_cell_length_c 6.059(1)
_cell_angle_alpha 90.
_cell_angle_beta 90.
_cell_angle_gamma 120.
_cell_volume 79.44
_cell_formula_units_Z 1
_symmetry_space_group_name_H-M 'P -3 m 1'
_symmetry_Int_Tables_number 164
_refine_ls_R_factor_all 0.029
loop_
_symmetry_equiv_pos_site_id
_symmetry_equiv_pos_as_xyz
1 'x-y, -y, -z'
2 '-x, -x+y, -z'
3 'y, x, -z'
4 'x-y, x, -z'
5 'y, -x+y, -z'
6 '-x, -y, -z'
7 '-x+y, y, z'
8 'x, x-y, z'
9 '-y, -x, z'
10 '-x+y, -x, z'
11 '-y, x-y, z'
12 'x, y, z'
loop_
_atom_type_symbol
_atom_type_oxidation_number
Ce0+ 0
O0+ 0
loop_
_atom_site_label
_atom_site_type_symbol
_atom_site_symmetry_multiplicity
_atom_site_Wyckoff_symbol
_atom_site_fract_x
_atom_site_fract_y
_atom_site_fract_z
_atom_site_B_iso_or_equiv
_atom_site_occupancy
_atom_site_attached_hydrogens
Ce1 Ce0+ 2 d 0.3333 0.6667 0.24543 .00742 1 0
O1 O0+ 1 a 0 0 0 .0139 1 0
O2 O0+ 2 d 0.3333 0.6667 0.6471 .0094 1 0
#End of TTdata_621706-ICSD