
#(C) 2017 by FIZ Karlsruhe - Leibniz Institute for Information Infrastructure.  All rights reserved.
data_26865-ICSD
_database_code_ICSD 26865
_audit_creation_date 1986-09-23
_audit_update_record 2016-02-01
_chemical_name_systematic 'Dicerium trioxide - alpha'
_chemical_formula_structural 'Ce2 O3'
_chemical_formula_sum 'Ce2 O3'
_chemical_name_structure_type La2O3
_exptl_crystal_density_diffrn 6.86
_publ_section_title

;
Die Kristallstruktur der alpha-Modifikation von den Sesquioxiden der seltenen
Erdmetalle. (La2 O3, Ce2 O3, Pr2 O3, Nd2 O3)
;
loop_
_citation_id
_citation_journal_full
_citation_year
_citation_journal_volume
_citation_page_first
_citation_page_last
_citation_journal_id_ASTM
primary 'Zeitschrift fuer Physikalische Chemie (Leipzig)' 1926 123 134 150
ZPCLAH
loop_
_publ_author_name
'Zachariasen, W.H.'
_cell_length_a 3.888
_cell_length_b 3.888
_cell_length_c 6.07
_cell_angle_alpha 90.
_cell_angle_beta 90.
_cell_angle_gamma 120.
_cell_volume 79.46
_cell_formula_units_Z 1
_symmetry_space_group_name_H-M 'P 3 2 1'
_symmetry_Int_Tables_number 150
loop_
_symmetry_equiv_pos_site_id
_symmetry_equiv_pos_as_xyz
1 'x-y, -y, -z'
2 '-x, -x+y, -z'
3 'y, x, -z'
4 '-x+y, -x, z'
5 '-y, x-y, z'
6 'x, y, z'
loop_
_atom_type_symbol
_atom_type_oxidation_number
Ce3+ 3
O2- -2
loop_
_atom_site_label
_atom_site_type_symbol
_atom_site_symmetry_multiplicity
_atom_site_Wyckoff_symbol
_atom_site_fract_x
_atom_site_fract_y
_atom_site_fract_z
_atom_site_B_iso_or_equiv
_atom_site_occupancy
_atom_site_attached_hydrogens
Ce1 Ce3+ 2 d 0.3333 0.6667 0.25(1) . 1. 0
O1 O2- 3 e 0.25(5) 0.25(5) 0 . 1. 0
#End of TTdata_26865-ICSD